                               Psi4 1.1 release

  ==> Input File <==

--------------------------------------------------------------------------
"""This is a template for psi4 input format."""
import numpy
import sys

from openfermion.config import *
from openfermion.ops._interaction_tensor import (one_body_basis_change,
                                                 two_body_basis_change)
from openfermion.utils import MolecularData
from numpy import array

sys.path.append('/usr/local/google/home/babbush/Desktop/FermiLib-Plugin-Psi4/openfermionpsi4')
from _psi4_conversion_functions import *

# Set memory that job can use in megabytes.
memory 8000 mb

# Initialize molecular data.
_description = 'ring_0.7414'
if _description == 'None':
    _description = None
molecule = MolecularData([('H', (1.1996103992591718, 0.0, 0.0)), ('H', (0.97050519962958581, 0.70511330118122673, 0.0)), ('H', (0.37069999999999997, 1.1408972872308663, 0.0)), ('H', (-0.37069999999999981, 1.1408972872308663, 0.0)), ('H', (-0.9705051996295857, 0.70511330118122684, 0.0)), ('H', (-1.1996103992591718, 1.4690990356766232e-16, 0.0)), ('H', (-0.97050519962958604, -0.70511330118122661, 0.0)), ('H', (-0.37070000000000008, -1.1408972872308663, 0.0)), ('H', (0.3706999999999997, -1.1408972872308663, 0.0)), ('H', (0.9705051996295857, -0.70511330118122695, 0.0))],
                         'sto-3g',
                         1,
                         0,
                         _description,
                          filename='/usr/local/google/home/babbush/Desktop/OpenFermion/src/openfermion/data/H10_sto-3g_singlet_ring_0.7414')

# Set molecular geometry and symmetry.
molecule mol {
H 1.19961039926 0.0 0.0
H 0.97050519963 0.705113301181 0.0
H 0.3707 1.14089728723 0.0
H -0.3707 1.14089728723 0.0
H -0.97050519963 0.705113301181 0.0
H -1.19961039926 1.46909903568e-16 0.0
H -0.97050519963 -0.705113301181 0.0
H -0.3707 -1.14089728723 0.0
H 0.3707 -1.14089728723 0.0
H 0.97050519963 -0.705113301181 0.0
symmetry c1
}
mol.set_multiplicity(1)
mol.set_molecular_charge(0)

# Set reference and guess.
if molecule.multiplicity == 1:
    set reference rhf
    set guess sad
else:
    set reference rohf
    set guess gwh

# Set global parameters of calculation.
set globals {
    basis sto-3g
    freeze_core false
    fail_on_maxiter true
    df_scf_guess false
    opdm true
    tpdm true
    soscf false
    scf_type pk
    maxiter 1e6
    num_amps_print 1e6
    r_convergence 1e-6
    d_convergence 1e-6
    e_convergence 1e-6
    ints_tolerance EQUALITY_TOLERANCE
    damping_percentage 0
}

# Run self-consistent field (SCF) calculation.
if 1:
    try:
        hf_energy, hf_wavefunction = energy('scf', return_wfn=True)
        if 1:
            print('Hartree-Fock energy for {} ({} electrons) is {}.'.format(
                molecule.name, molecule.n_electrons, hf_energy))
    except:
        if 1:
            print('WARNING: SCF calculation failed.')
        else:
            raise
    else:
        # Get orbitals and Fock matrix.
        molecule.hf_energy = hf_energy
        molecule.nuclear_repulsion = mol.nuclear_repulsion_energy()
        molecule.canonical_orbitals = numpy.asarray(hf_wavefunction.Ca())
        molecule.n_orbitals = molecule.canonical_orbitals.shape[0]
        molecule.n_qubits = 2 * molecule.n_orbitals
        molecule.orbital_energies = numpy.asarray(hf_wavefunction.epsilon_a())
        molecule.fock_matrix = numpy.asarray(hf_wavefunction.Fa())

        # Get integrals using MintsHelper.
        mints = MintsHelper(hf_wavefunction.basisset())
        molecule.one_body_integrals = one_body_basis_change(
            numpy.asarray(mints.ao_kinetic()), molecule.canonical_orbitals)
        molecule.one_body_integrals += one_body_basis_change(
            numpy.asarray(mints.ao_potential()), molecule.canonical_orbitals)
        two_body_integrals = numpy.asarray(mints.ao_eri())
        two_body_integrals.reshape((molecule.n_orbitals, molecule.n_orbitals,
                                    molecule.n_orbitals, molecule.n_orbitals))
        two_body_integrals = numpy.einsum('psqr', two_body_integrals)
        two_body_integrals = two_body_basis_change(
            two_body_integrals, molecule.canonical_orbitals)
        molecule.two_body_integrals = two_body_integrals
        molecule.save()

# Perform MP2 energy calculation if there are at least two electrons.
if 1:
    try:
        assert molecule.n_electrons > 1
        mp2_energy = energy('mp2')
        if 1:
            print('MP2 energy for {} ({} electrons) is {}.'.format(
                molecule.name, molecule.n_electrons, mp2_energy))
    except:
        if 1:
            print('WARNING: MP2 calculation failed.')
        else:
            raise
    else:
        molecule.mp2_energy = mp2_energy
        molecule.save()

# Perform configuration interaction singles and doubles (CISD) calculation.
if 1:
    set qc_module detci
    try:
        cisd_energy, cisd_wavefunction = energy('cisd', return_wfn=True)
        if 1:
            print('CISD energy for {} ({} electrons) is {}.'.format(
                molecule.name, molecule.n_electrons, cisd_energy))
    except:
        if 1:
            print('WARNING: CISD calculation failed.')
        else:
            raise
    else:
        # For the functions below, "a" and "b" refer to "up and "down" spins.
        molecule.cisd_energy = cisd_energy

        # Get 1-RDM from CISD calculation.
        cisd_one_rdm_a = numpy.array(cisd_wavefunction.get_opdm(
            0, 0, 'A', True)).reshape(molecule.n_orbitals, molecule.n_orbitals)
        cisd_one_rdm_b = numpy.array(cisd_wavefunction.get_opdm(
            0, 0, 'B', True)).reshape(molecule.n_orbitals, molecule.n_orbitals)

        # Get 2-RDM from CISD calculation.
        cisd_two_rdm_aa = numpy.array(cisd_wavefunction.get_tpdm(
            'AA', False)).reshape(molecule.n_orbitals, molecule.n_orbitals,
                                  molecule.n_orbitals, molecule.n_orbitals)
        cisd_two_rdm_ab = numpy.array(cisd_wavefunction.get_tpdm(
            'AB', False)).reshape(molecule.n_orbitals, molecule.n_orbitals,
                                  molecule.n_orbitals, molecule.n_orbitals)
        cisd_two_rdm_bb = numpy.array(cisd_wavefunction.get_tpdm(
            'BB', False)).reshape(molecule.n_orbitals, molecule.n_orbitals,
                                  molecule.n_orbitals, molecule.n_orbitals)

        # Get overall RDMs.
        cisd_one_rdm, cisd_two_rdm = unpack_spatial_rdm(
            cisd_one_rdm_a, cisd_one_rdm_b, cisd_two_rdm_aa,
            cisd_two_rdm_ab, cisd_two_rdm_bb)

        # Store 1-RDM in molecule file, 2-RDM separately in other file.
        molecule.cisd_one_rdm = cisd_one_rdm
        molecule.cisd_two_rdm = cisd_two_rdm
        molecule.save()

# Perform exact diagonalization.
if 1:
    set qc_module detci
    try:
        fci_energy, fci_wavefunction = energy('fci', return_wfn=True)
        if 1:
            print('FCI energy for {} ({} electrons) is {}.'.format(
                molecule.name, molecule.n_electrons, fci_energy))
    except:
        if 1:
            print('WARNING: FCI calculation failed.')
        else:
            raise
    else:
        # For the functions below, "a" and "b" refer to "up and "down" spins.
        molecule.fci_energy = fci_energy

        # Get 1-RDM from FCI calculation.
        fci_one_rdm_a = numpy.array(fci_wavefunction.get_opdm(
            0, 0, 'A', True)).reshape(molecule.n_orbitals, molecule.n_orbitals)
        fci_one_rdm_b = numpy.array(fci_wavefunction.get_opdm(
            0, 0, 'B', True)).reshape(molecule.n_orbitals, molecule.n_orbitals)

        # Get 2-RDM from FCI calculation.
        fci_two_rdm_aa = numpy.array(fci_wavefunction.get_tpdm(
            'AA', False)).reshape(molecule.n_orbitals, molecule.n_orbitals,
                                  molecule.n_orbitals, molecule.n_orbitals)
        fci_two_rdm_ab = numpy.array(fci_wavefunction.get_tpdm(
            'AB', False)).reshape(molecule.n_orbitals, molecule.n_orbitals,
                                  molecule.n_orbitals, molecule.n_orbitals)
        fci_two_rdm_bb = numpy.array(fci_wavefunction.get_tpdm(
            'BB', False)).reshape(molecule.n_orbitals, molecule.n_orbitals,
                                  molecule.n_orbitals, molecule.n_orbitals)

        # Get overall RDMs.
        fci_one_rdm, fci_two_rdm = unpack_spatial_rdm(
            fci_one_rdm_a, fci_one_rdm_b,
            fci_two_rdm_aa, fci_two_rdm_ab, fci_two_rdm_bb)

        # Store 1-RDM in molecule file, 2-RDM separately in other file.
        molecule.fci_one_rdm = fci_one_rdm
        molecule.fci_two_rdm = fci_two_rdm
        molecule.save()

# Perform coupled cluster singles and doubles (CCSD) calculation.
if 1:
    set qc_module ccenergy
    try:
        ccsd_energy = energy('ccsd')
        if 1:
            print('CCSD energy for {} ({} electrons) is {}.'.format(
                molecule.name, molecule.n_electrons, ccsd_energy))
    except:
        if 1:
            print('WARNING: CCSD calculation failed.')
        else:
            raise
    else:
        molecule.ccsd_energy = ccsd_energy

        # Merge CC amplitudes into molecule by parsing
        psi_filename = outfile_name()
        single_cc_amplitudes, double_cc_amplitudes = (
            parse_psi4_ccsd_amplitudes(
                2 * molecule.n_orbitals,
                molecule.get_n_alpha_electrons(),
                molecule.get_n_beta_electrons(),
                psi_filename))

        molecule.ccsd_single_amps = single_cc_amplitudes
        molecule.ccsd_double_amps = double_cc_amplitudes
        molecule.save()
--------------------------------------------------------------------------

    Molecular point group: c1
  Charge       = 0
  Multiplicity = 1
  Basis Set: STO-3G
    Blend: STO-3G
  @RHF Final Energy:    -4.97200916666731
    Total Energy =                         -4.9720091666673092
    Molecular point group: c1
  Basis Set: STO-3G
    Blend: STO-3G
  @RHF Final Energy:    -4.97200916666731
    Total Energy =                         -4.9720091666673127
  Basis Set: (STO-3G AUX)
    Blend: DEF2-QZVPP-RI
	 Reference Energy          =      -4.9720091666673119 [Eh]
	 Singles Energy            =      -0.0000000000000000 [Eh]
	 Same-Spin Energy          =      -0.0225161286377604 [Eh]
	 Opposite-Spin Energy      =      -0.0602749221131586 [Eh]
	 Correlation Energy        =      -0.0827910507509190 [Eh]
	 Total Energy              =      -5.0548002174182312 [Eh]

	 ================> DF-SCS-MP2 Energies <==================
	-----------------------------------------------------------
	 SCS Same-Spin Scale       =       0.3333333333333333 [-]
	 SCS Opposite-Spin Scale   =       1.2000000000000000 [-]
	 SCS Same-Spin Energy      =      -0.0075053762125868 [Eh]
	 SCS Opposite-Spin Energy  =      -0.0723299065357903 [Eh]
	 SCS Correlation Energy    =      -0.0798352827483771 [Eh]
	 SCS Total Energy          =      -5.0518444494156887 [Eh]
	-----------------------------------------------------------

  Basis Set: STO-3G
    Blend: STO-3G
  @RHF Final Energy:    -4.97200916666732
    Total Energy =                         -4.9720091666673163
  Multiplicity = 1
  Basis Set: STO-3G
    Blend: STO-3G
  @RHF Final Energy:    -4.97200916666732
    Total Energy =                         -4.9720091666673234
    Molecular point group: c1

    Geometry (in Angstrom), charge = 0, multiplicity = 1:

       Center              X                  Y                   Z               Mass
    ------------   -----------------  -----------------  -----------------  -----------------
           H          1.199610399260    -0.000000000000     0.000000000000     1.007825032070
           H          0.970505199630     0.705113301181     0.000000000000     1.007825032070
           H          0.370700000000     1.140897287230     0.000000000000     1.007825032070
           H         -0.370700000000     1.140897287230     0.000000000000     1.007825032070
           H         -0.970505199630     0.705113301181     0.000000000000     1.007825032070
           H         -1.199610399260    -0.000000000000     0.000000000000     1.007825032070
           H         -0.970505199630    -0.705113301181     0.000000000000     1.007825032070
           H         -0.370700000000    -1.140897287230     0.000000000000     1.007825032070
           H          0.370700000000    -1.140897287230     0.000000000000     1.007825032070
           H          0.970505199630    -0.705113301181     0.000000000000     1.007825032070

  Charge       = 0
  Multiplicity = 1
  Basis Set: STO-3G
    Blend: STO-3G

    Orbital Energies (a.u.)
    -----------------------

    Doubly Occupied:

       1A     -0.956322     2A     -0.776844     3A     -0.776844
       4A     -0.343365     5A     -0.343365

  @RHF Final Energy:    -4.97200916666732

   => Energetics <=

    Nuclear Repulsion Energy =             17.0382022078950364
    One-Electron Energy =                 -37.6269448106730735
    Two-Electron Energy =                  15.6167334361107137
    DFT Exchange-Correlation Energy =       0.0000000000000000
    Empirical Dispersion Energy =           0.0000000000000000
    PCM Polarization Energy =               0.0000000000000000
    EFP Energy =                            0.0000000000000000
    Total Energy =                         -4.9720091666673234
      * MP2 total energy                      =   -5.054801098507942
      * CCSD total energy                     =   -5.071814592817971
*** Psi4 exiting successfully. Buy a developer a beer!
